 # Al12 O18
 
       25200  atoms
           4  atom types
 
      0.000000000000      48.050272200000  xlo xhi
      0.000000000000      83.225512760000  ylo yhi
      0.000000000000      65.843307000000  zlo zhi
 
Masses
 
            1   26.98153860             # Al
            2   15.99900000             # O
            3   95.96000000             # Mo
            4   32.06000000             # S
 
Atoms # atomic
 
         1    1       43.245244980000      16.645102550000      28.172452820000
         2    1       19.220108880000      58.257858930000      28.172452820000
         3    2       42.509726250000      17.919058360000      36.069696440000
         4    2       18.484590150000      59.531814740000      36.069696440000
         5    2       40.107212640000      19.532422380000      36.069696440000
         6    2       16.082076540000      61.145178760000      36.069696440000
         7    1       38.440217760000      24.967653830000       1.939946320000
         8    1       14.415081660000      66.580410210000       1.939946320000
         9    2       39.911255220000      16.645102550000      36.069696440000
        10    2       15.886119120000      58.257858930000      36.069696440000
        11    2       37.704699030000      26.241609640000       9.837189940000
        12    1       38.440217760000      16.645102550000      30.850686800000
        13    2       13.679562930000      67.854366020000       9.837189940000
        14    1       14.415081660000      58.257858930000      30.850686800000
        15    2       35.302185420000      27.854973660000       9.837189940000
        16    1       36.037704150000      20.806378190000      37.408813430000
        17    2       11.277049320000      69.467730040000       9.837189940000
        18    1       12.012568050000      62.419134570000      37.408813430000
        19    2       36.773222880000      19.532422380000      29.511569810000
        20    2       35.106228000000      24.967653830000       9.837189940000
        21    2       12.748086780000      61.145178760000      29.511569810000
        22    2       11.081091900000      66.580410210000       9.837189940000
        23    2       39.175736490000      17.919058360000      29.511569810000
        24    1       33.635190540000      24.967653830000       4.618180300000
        25    2       15.150600390000      59.531814740000      29.511569810000
        26    1        9.610054440000      66.580410210000       4.618180300000
        27    2       41.774207520000      16.645102550000      29.511569810000
        28    1       31.232676930000      29.128929470000      11.176306930000
        29    2       17.749071420000      58.257858930000      29.511569810000
        30    1        7.207540830000      70.741685850000      11.176306930000
        31    1       43.245244980000      16.645102550000      34.730579450000
        32    2       31.968195660000      27.854973660000       3.279063310000
        33    1       19.220108880000      58.257858930000      34.730579450000
        34    2        7.943059560000      69.467730040000       3.279063310000
        35    1       40.842731370000      18.032194430000      32.544537240000
        36    2       34.370709270000      26.241609640000       3.279063310000
        37    1       16.817595270000      59.644950810000      32.544537240000
        38    2       10.345573170000      67.854366020000       3.279063310000
        39    2       40.107212640000      19.306150240000      27.325527600000
        40    2       36.969180300000      24.967653830000       3.279063310000
        41    2       16.082076540000      60.918906620000      27.325527600000
        42    2       12.944044200000      66.580410210000       3.279063310000
        43    2       40.107212640000      16.758238620000      27.325527600000
        44    1       38.440217760000      24.967653830000       8.498072950000
        45    2       16.082076540000      58.370995000000      27.325527600000
        46    1       14.415081660000      66.580410210000       8.498072950000
        47    2       42.313768830000      18.032194430000      27.325527600000
        48    1       36.037704150000      26.354745710000       6.312030740000
        49    2       18.288632730000      59.644950810000      27.325527600000
        50    1       12.012568050000      67.967502090000       6.312030740000
        51    1       40.842731370000      18.032194430000      35.222771220000
        52    2       35.302185420000      27.628701520000       1.093021100000
        53    1       16.817595270000      59.644950810000      35.222771220000
        54    2       11.277049320000      69.241457900000       1.093021100000
        55    1       40.842731370000      18.032194430000      28.664644600000
        56    2       35.302185420000      25.080789900000       1.093021100000
        57    1       16.817595270000      59.644950810000      28.664644600000
        58    2       11.277049320000      66.693546280000       1.093021100000
        59    2       41.578250100000      16.758238620000      33.883654230000
        60    2       37.508741610000      26.354745710000       1.093021100000
        61    2       17.553114000000      58.370995000000      33.883654230000
        62    2       13.483605510000      67.967502090000       1.093021100000
        63    2       41.578250100000      19.306150240000      33.883654230000
        64    1       36.037704150000      26.354745710000       8.990264720000
        65    2       17.553114000000      60.918906620000      33.883654230000
        66    1       12.012568050000      67.967502090000       8.990264720000
        67    2       39.371693910000      18.032194430000      33.883654230000
        68    1       36.037704150000      26.354745710000       2.432138100000
        69    2       15.346557810000      59.644950810000      33.883654230000
        70    1       12.012568050000      67.967502090000       2.432138100000
        71    1       40.842731370000      18.032194430000      39.102663860000
        72    2       36.773222880000      25.080789900000       7.651147730000
        73    1       16.817595270000      59.644950810000      39.102663860000
        74    2       12.748086780000      66.693546280000       7.651147730000
        75    1       38.440217760000      19.419286310000      36.916621650000
        76    2       36.773222880000      27.628701520000       7.651147730000
        77    1       14.415081660000      61.032042690000      36.916621650000
        78    2       12.748086780000      69.241457900000       7.651147730000
        79    2       37.704699030000      18.145330500000      31.697612020000
        80    2       34.566666690000      26.354745710000       7.651147730000
        81    2       13.679562930000      59.758086880000      31.697612020000
        82    2       10.541530590000      67.967502090000       7.651147730000
        83    2       39.911255220000      19.419286310000      31.697612020000
        84    1       36.037704150000      26.354745710000      12.870157360000
        85    2       15.886119120000      61.032042690000      31.697612020000
        86    1       12.012568050000      67.967502090000      12.870157360000
        87    2       37.704699030000      20.693242120000      31.697612020000
        88    1       33.635190540000      27.741837590000      10.684115150000
        89    2       13.679562930000      62.305998500000      31.697612020000
        90    1        9.610054440000      69.354593970000      10.684115150000
        91    1       38.440217760000      19.419286310000      26.478602390000
        92    2       32.899671810000      26.467881780000       5.465105520000
        93    1       14.415081660000      61.032042690000      26.478602390000
        94    2        8.874535710000      68.080638160000       5.465105520000
        95    1       38.440217760000      19.419286310000      33.036729010000
        96    2       35.106228000000      27.741837590000       5.465105520000
        97    1       14.415081660000      61.032042690000      33.036729010000
        98    2       11.081091900000      69.354593970000       5.465105520000
        99    2       39.175736490000      20.693242120000      38.255738650000
       100    2       32.899671810000      29.015793400000       5.465105520000
       101    2       15.150600390000      62.305998500000      38.255738650000
       102    2        8.874535710000      70.628549780000       5.465105520000
       103    2       36.969180300000      19.419286310000      38.255738650000
       104    1       33.635190540000      27.741837590000       0.246095890000
       105    2       12.944044200000      61.032042690000      38.255738650000
       106    1        9.610054440000      69.354593970000       0.246095890000
       107    2       39.175736490000      18.145330500000      38.255738650000
       108    1       33.635190540000      27.741837590000       6.804222510000
       109    2       15.150600390000      59.758086880000      38.255738650000
       110    1        9.610054440000      69.354593970000       6.804222510000
       111    1       38.440217760000      19.419286310000      30.358495030000
       112    2       34.370709270000      29.015793400000      12.023232150000
       113    1       14.415081660000      61.032042690000      30.358495030000
       114    2       10.345573170000      70.628549780000      12.023232150000
       115    1        0.000000000000      16.645102550000      28.172452820000
       116    2       32.164153080000      27.741837590000      12.023232150000
       117    1       24.025136100000      58.257858930000      28.172452820000
       118    2        8.139016980000      69.354593970000      12.023232150000
       119    2       47.314753470000      17.919058360000      36.069696440000
       120    2       34.370709270000      26.467881780000      12.023232150000
       121    2       23.289617370000      59.531814740000      36.069696440000
       122    2       10.345573170000      68.080638160000      12.023232150000
       123    1       33.635190540000      27.741837590000       4.125988530000
       124    2       44.912239860000      19.532422380000      36.069696440000
       125    1        9.610054440000      69.354593970000       4.125988530000
       126    2       20.887103760000      61.145178760000      36.069696440000
       127    1       43.245244980000      24.967653830000       1.939946320000
       128    2       44.716282440000      16.645102550000      36.069696440000
       129    1       19.220108880000      66.580410210000       1.939946320000
       130    2       20.691146340000      58.257858930000      36.069696440000
       131    2       42.509726250000      26.241609640000       9.837189940000
       132    1       43.245244980000      16.645102550000      30.850686800000
       133    2       18.484590150000      67.854366020000       9.837189940000
       134    1       19.220108880000      58.257858930000      30.850686800000
       135    2       40.107212640000      27.854973660000       9.837189940000
       136    2       16.082076540000      69.467730040000       9.837189940000
       137    1       40.842731370000      20.806378190000      37.408813430000
       138    1       16.817595270000      62.419134570000      37.408813430000
       139    2       39.911255220000      24.967653830000       9.837189940000
       140    2       15.886119120000      66.580410210000       9.837189940000
       141    2       41.578250100000      19.532422380000      29.511569810000
       142    2       17.553114000000      61.145178760000      29.511569810000
       143    1       38.440217760000      24.967653830000       4.618180300000
       144    1       14.415081660000      66.580410210000       4.618180300000
       145    2       43.980763710000      17.919058360000      29.511569810000
       146    1       36.037704150000      29.128929470000      11.176306930000
       147    2       19.955627610000      59.531814740000      29.511569810000
       148    1       12.012568050000      70.741685850000      11.176306930000
       149    2       46.579234740000      16.645102550000      29.511569810000
       150    2       36.773222880000      27.854973660000       3.279063310000
       151    2       22.554098640000      58.257858930000      29.511569810000
       152    2       12.748086780000      69.467730040000       3.279063310000
       153    2       39.175736490000      26.241609640000       3.279063310000
       154    1        0.000000000000      16.645102550000      34.730579450000
       155    2       15.150600390000      67.854366020000       3.279063310000
       156    1       24.025136100000      58.257858930000      34.730579450000
       157    2       41.774207520000      24.967653830000       3.279063310000
       158    2       17.749071420000      66.580410210000       3.279063310000
       159    1       45.647758590000      18.032194430000      32.544537240000
       160    1       21.622622490000      59.644950810000      32.544537240000
       161    1       43.245244980000      24.967653830000       8.498072950000
       162    1       19.220108880000      66.580410210000       8.498072950000
       163    2       44.912239860000      19.306150240000      27.325527600000
       164    2       20.887103760000      60.918906620000      27.325527600000
       165    1       40.842731370000      26.354745710000       6.312030740000
       166    1       16.817595270000      67.967502090000       6.312030740000
       167    2       44.912239860000      16.758238620000      27.325527600000
       168    2       20.887103760000      58.370995000000      27.325527600000
       169    2       40.107212640000      27.628701520000       1.093021100000
       170    2       16.082076540000      69.241457900000       1.093021100000
       171    2       47.118796050000      18.032194430000      27.325527600000
       172    2       40.107212640000      25.080789900000       1.093021100000
       173    2       23.093659950000      59.644950810000      27.325527600000
       174    2       16.082076540000      66.693546280000       1.093021100000
       175    1       45.647758590000      18.032194430000      35.222771220000
       176    2       42.313768830000      26.354745710000       1.093021100000
       177    1       21.622622490000      59.644950810000      35.222771220000
       178    2       18.288632730000      67.967502090000       1.093021100000
       179    1       45.647758590000      18.032194430000      28.664644600000
       180    1       40.842731370000      26.354745710000       8.990264720000
       181    1       21.622622490000      59.644950810000      28.664644600000
       182    1       16.817595270000      67.967502090000       8.990264720000
       183    2       46.383277320000      16.758238620000      33.883654230000
       184    1       40.842731370000      26.354745710000       2.432138100000
       185    2       22.358141220000      58.370995000000      33.883654230000
       186    1       16.817595270000      67.967502090000       2.432138100000
       187    2       46.383277320000      19.306150240000      33.883654230000
       188    2       41.578250100000      25.080789900000       7.651147730000
       189    2       22.358141220000      60.918906620000      33.883654230000
       190    2       17.553114000000      66.693546280000       7.651147730000
       191    2       44.176721130000      18.032194430000      33.883654230000
       192    2       41.578250100000      27.628701520000       7.651147730000
       193    2       20.151585030000      59.644950810000      33.883654230000
       194    2       17.553114000000      69.241457900000       7.651147730000
       195    1       45.647758590000      18.032194430000      39.102663860000
       196    2       39.371693910000      26.354745710000       7.651147730000
       197    1       21.622622490000      59.644950810000      39.102663860000
       198    2       15.346557810000      67.967502090000       7.651147730000
       199    1       43.245244980000      19.419286310000      36.916621650000
       200    1       40.842731370000      26.354745710000      12.870157360000
       201    1       19.220108880000      61.032042690000      36.916621650000
       202    1       16.817595270000      67.967502090000      12.870157360000
       203    1       38.440217760000      27.741837590000      10.684115150000
       204    2       42.509726250000      18.145330500000      31.697612020000
       205    1       14.415081660000      69.354593970000      10.684115150000
       206    2       18.484590150000      59.758086880000      31.697612020000
       207    2       37.704699030000      26.467881780000       5.465105520000
       208    2       44.716282440000      19.419286310000      31.697612020000
       209    2       13.679562930000      68.080638160000       5.465105520000
       210    2       20.691146340000      61.032042690000      31.697612020000
       211    2       39.911255220000      27.741837590000       5.465105520000
       212    2       42.509726250000      20.693242120000      31.697612020000
       213    2       15.886119120000      69.354593970000       5.465105520000
       214    2       18.484590150000      62.305998500000      31.697612020000
       215    2       37.704699030000      29.015793400000       5.465105520000
       216    2       13.679562930000      70.628549780000       5.465105520000
       217    1       43.245244980000      19.419286310000      26.478602390000
       218    1       19.220108880000      61.032042690000      26.478602390000
       219    1       38.440217760000      27.741837590000       0.246095890000
       220    1       14.415081660000      69.354593970000       0.246095890000
       221    1       43.245244980000      19.419286310000      33.036729010000
       222    1       19.220108880000      61.032042690000      33.036729010000
       223    1       38.440217760000      27.741837590000       6.804222510000
       224    1       14.415081660000      69.354593970000       6.804222510000
       225    2       43.980763710000      20.693242120000      38.255738650000
       226    2       19.955627610000      62.305998500000      38.255738650000
       227    2       39.175736490000      29.015793400000      12.023232150000
       228    2       15.150600390000      70.628549780000      12.023232150000
       229    2       41.774207520000      19.419286310000      38.255738650000
       230    2       17.749071420000      61.032042690000      38.255738650000
       231    2       36.969180300000      27.741837590000      12.023232150000
       232    2       12.944044200000      69.354593970000      12.023232150000
       233    2       43.980763710000      18.145330500000      38.255738650000
       234    2       39.175736490000      26.467881780000      12.023232150000
       235    2       19.955627610000      59.758086880000      38.255738650000
       236    2       15.150600390000      68.080638160000      12.023232150000
       237    1       43.245244980000      19.419286310000      30.358495030000
       238    1       38.440217760000      27.741837590000       4.125988530000
       239    1       19.220108880000      61.032042690000      30.358495030000
       240    1       14.415081660000      69.354593970000       4.125988530000
       241    1        4.805027220000      16.645102550000      28.172452820000
       242    1        0.000000000000      24.967653830000       1.939946320000
       243    1       28.830163320000      58.257858930000      28.172452820000
       244    1       24.025136100000      66.580410210000       1.939946320000
       245    2        4.069508490000      17.919058360000      36.069696440000
       246    2       47.314753470000      26.241609640000       9.837189940000
       247    2       28.094644590000      59.531814740000      36.069696440000
       248    2       23.289617370000      67.854366020000       9.837189940000
       249    2        1.666994880000      19.532422380000      36.069696440000
       250    2       44.912239860000      27.854973660000       9.837189940000
       251    2       25.692130980000      61.145178760000      36.069696440000
       252    2       20.887103760000      69.467730040000       9.837189940000
       253    2        1.471037460000      16.645102550000      36.069696440000
       254    2       44.716282440000      24.967653830000       9.837189940000
       255    2       25.496173560000      58.257858930000      36.069696440000
       256    2       20.691146340000      66.580410210000       9.837189940000
       257    1        0.000000000000      16.645102550000      30.850686800000
       258    1       43.245244980000      24.967653830000       4.618180300000
       259    1       24.025136100000      58.257858930000      30.850686800000
       260    1       19.220108880000      66.580410210000       4.618180300000
       261    1       45.647758590000      20.806378190000      37.408813430000
       262    1       40.842731370000      29.128929470000      11.176306930000
       263    1       21.622622490000      62.419134570000      37.408813430000
       264    1       16.817595270000      70.741685850000      11.176306930000
       265    2       46.383277320000      19.532422380000      29.511569810000
       266    2       41.578250100000      27.854973660000       3.279063310000
       267    2       22.358141220000      61.145178760000      29.511569810000
       268    2       17.553114000000      69.467730040000       3.279063310000
       269    2        0.735518730000      17.919058360000      29.511569810000
       270    2       43.980763710000      26.241609640000       3.279063310000
       271    2       24.760654830000      59.531814740000      29.511569810000
       272    2       19.955627610000      67.854366020000       3.279063310000
       273    2        3.333989760000      16.645102550000      29.511569810000
       274    2       46.579234740000      24.967653830000       3.279063310000
       275    2       22.554098640000      66.580410210000       3.279063310000
       276    2       27.359125860000      58.257858930000      29.511569810000
       277    1        0.000000000000      24.967653830000       8.498072950000
       278    1        4.805027220000      16.645102550000      34.730579450000
       279    1       24.025136100000      66.580410210000       8.498072950000
       280    1       28.830163320000      58.257858930000      34.730579450000
       281    1       45.647758590000      26.354745710000       6.312030740000
       282    1        2.402513610000      18.032194430000      32.544537240000
       283    1       21.622622490000      67.967502090000       6.312030740000
       284    1       26.427649710000      59.644950810000      32.544537240000
       285    2       44.912239860000      27.628701520000       1.093021100000
       286    2        1.666994880000      19.306150240000      27.325527600000
       287    2       20.887103760000      69.241457900000       1.093021100000
       288    2       25.692130980000      60.918906620000      27.325527600000
       289    2       44.912239860000      25.080789900000       1.093021100000
       290    2        1.666994880000      16.758238620000      27.325527600000
       291    2       20.887103760000      66.693546280000       1.093021100000
       292    2       25.692130980000      58.370995000000      27.325527600000
       293    2       47.118796050000      26.354745710000       1.093021100000
       294    2       23.093659950000      67.967502090000       1.093021100000
       295    2        3.873551070000      18.032194430000      27.325527600000
       296    2       27.898687170000      59.644950810000      27.325527600000
       297    1       45.647758590000      26.354745710000       8.990264720000
       298    1       21.622622490000      67.967502090000       8.990264720000
       299    1        2.402513610000      18.032194430000      35.222771220000
       300    1       45.647758590000      26.354745710000       2.432138100000
       301    1       26.427649710000      59.644950810000      35.222771220000
       302    1       21.622622490000      67.967502090000       2.432138100000
       303    1        2.402513610000      18.032194430000      28.664644600000
       304    2       46.383277320000      25.080789900000       7.651147730000
       305    1       26.427649710000      59.644950810000      28.664644600000
       306    2       22.358141220000      66.693546280000       7.651147730000
       307    2        3.138032340000      16.758238620000      33.883654230000
       308    2       46.383277320000      27.628701520000       7.651147730000
       309    2       27.163168440000      58.370995000000      33.883654230000
       310    2       22.358141220000      69.241457900000       7.651147730000
       311    2        3.138032340000      19.306150240000      33.883654230000
       312    2       44.176721130000      26.354745710000       7.651147730000
       313    2       27.163168440000      60.918906620000      33.883654230000
       314    2       20.151585030000      67.967502090000       7.651147730000
       315    2        0.931476150000      18.032194430000      33.883654230000
       316    1       45.647758590000      26.354745710000      12.870157360000
       317    2       24.956612250000      59.644950810000      33.883654230000
       318    1       21.622622490000      67.967502090000      12.870157360000
       319    1        2.402513610000      18.032194430000      39.102663860000
       320    1       43.245244980000      27.741837590000      10.684115150000
       321    1       19.220108880000      69.354593970000      10.684115150000
       322    1       26.427649710000      59.644950810000      39.102663860000
       323    2       42.509726250000      26.467881780000       5.465105520000
       324    1        0.000000000000      19.419286310000      36.916621650000
       325    2       18.484590150000      68.080638160000       5.465105520000
       326    1       24.025136100000      61.032042690000      36.916621650000
       327    2       47.314753470000      18.145330500000      31.697612020000
       328    2       44.716282440000      27.741837590000       5.465105520000
       329    2       23.289617370000      59.758086880000      31.697612020000
       330    2       20.691146340000      69.354593970000       5.465105520000
       331    2        1.471037460000      19.419286310000      31.697612020000
       332    2       42.509726250000      29.015793400000       5.465105520000
       333    2       25.496173560000      61.032042690000      31.697612020000
       334    2       18.484590150000      70.628549780000       5.465105520000
       335    2       47.314753470000      20.693242120000      31.697612020000
       336    1       43.245244980000      27.741837590000       0.246095890000
       337    2       23.289617370000      62.305998500000      31.697612020000
       338    1       19.220108880000      69.354593970000       0.246095890000
       339    1        0.000000000000      19.419286310000      26.478602390000
       340    1       43.245244980000      27.741837590000       6.804222510000
       341    1       24.025136100000      61.032042690000      26.478602390000
       342    1       19.220108880000      69.354593970000       6.804222510000
       343    1        0.000000000000      19.419286310000      33.036729010000
       344    2       43.980763710000      29.015793400000      12.023232150000
       345    1       24.025136100000      61.032042690000      33.036729010000
       346    2       19.955627610000      70.628549780000      12.023232150000
       347    2        0.735518730000      20.693242120000      38.255738650000
       348    2       41.774207520000      27.741837590000      12.023232150000
       349    2       24.760654830000      62.305998500000      38.255738650000
       350    2       17.749071420000      69.354593970000      12.023232150000
       351    2       46.579234740000      19.419286310000      38.255738650000
       352    2       43.980763710000      26.467881780000      12.023232150000
       353    2       22.554098640000      61.032042690000      38.255738650000
       354    2       19.955627610000      68.080638160000      12.023232150000
       355    2        0.735518730000      18.145330500000      38.255738650000
       356    2       24.760654830000      59.758086880000      38.255738650000
       357    1       43.245244980000      27.741837590000       4.125988530000
       358    1       19.220108880000      69.354593970000       4.125988530000
       359    1        0.000000000000      19.419286310000      30.358495030000
       360    1       24.025136100000      61.032042690000      30.358495030000
       361    1        4.805027220000      24.967653830000       1.939946320000
       362    1        9.610054440000      16.645102550000      28.172452820000
       363    1       28.830163320000      66.580410210000       1.939946320000
       364    1       33.635190540000      58.257858930000      28.172452820000
       365    2        4.069508490000      26.241609640000       9.837189940000
       366    2        8.874535710000      17.919058360000      36.069696440000
       367    2       28.094644590000      67.854366020000       9.837189940000
       368    2       32.899671810000      59.531814740000      36.069696440000
       369    2        1.666994880000      27.854973660000       9.837189940000